[Molden Format]
[Atoms] (AU)
LI   1    3         0.000000000000       0.000000000000      -0.237357147416
H    2    1         0.000000000000       0.000000000000       1.652368985469
[GTO]
  1 0
 s    9  1.00
     1469.0000000000         0.0007660000
      220.5000000000         0.0058920000
       50.2600000000         0.0296710000
       14.2400000000         0.1091800000
        4.5810000000         0.2827890000
        1.5800000000         0.4531230000
        0.5640000000         0.2747740000
        0.0734500000         0.0097510000
        0.0280500000        -0.0031800000
 s    9  1.00
     1469.0000000000        -0.0001200000
      220.5000000000        -0.0009230000
       50.2600000000        -0.0046890000
       14.2400000000        -0.0176820000
        4.5810000000        -0.0489020000
        1.5800000000        -0.0960090000
        0.5640000000        -0.1363800000
        0.0734500000         0.5751020000
        0.0280500000         0.5176610000
 s    1  1.00
        0.0280500000         1.0000000000
 p    4  1.00
        1.5340000000         0.0227840000
        0.2749000000         0.1391070000
        0.0736200000         0.5003750000
        0.0240300000         0.5084740000
 p    1  1.00
        0.0240300000         1.0000000000
 d    1  1.00
        0.1144000000         1.0000000000

  2 0
 s    3  1.00
       13.0100000000         0.0196850000
        1.9620000000         0.1379770000
        0.4446000000         0.4781480000
 s    1  1.00
        0.1220000000         1.0000000000
 p    1  1.00
        0.7270000000         1.0000000000

[5D]
[9G]

[MO]
 Sym= A
 Ene=        -2.4419571692
 Spin= Alpha
 Occup=  2.0000
  1       0.343876153643
  2       2.563792883228
  3      -2.763006209061
  4       0.000000000000
  5      -0.000000000000
  6      -1.423307561149
  7      -0.000000000000
  8       0.000000000000
  9       1.110778417612
 10       0.043217197456
 11      -0.000000000000
 12       0.000000000000
 13      -0.000000000000
 14      -0.000000000000
 15       0.014728601498
 16       0.304254366125
 17      -0.000000000000
 18       0.000000000000
 19      -0.037379252657
 Sym= A
 Ene=        -0.3219942440
 Spin= Alpha
 Occup=  2.0000
  1       0.988974503410
  2      -0.023838056052
  3       0.015133059128
  4       0.000000000000
  5      -0.000000000000
  6      -0.021980310502
  7       0.000000000000
  8       0.000000000000
  9       0.015101671001
 10      -0.003038440274
 11       0.000000000000
 12      -0.000000000000
 13       0.000000000000
 14      -0.000000000000
 15       0.019844198861
 16       0.011837473593
 17       0.000000000000
 18       0.000000000000
 19      -0.002159610377
 Sym= A
 Ene=         0.0078785105
 Spin= Alpha
 Occup=  0.0000
  1       0.036054064824
  2      -0.976903828722
  3       0.491839386626
  4       0.000000000000
  5      -0.000000000000
  6      -0.760578413125
  7      -0.000000000000
  8       0.000000000000
  9       0.443477464915
 10      -0.076002071547
 11       0.000000000000
 12      -0.000000000000
 13      -0.000000000000
 14       0.000000000000
 15      -0.484463246868
 16       0.044641029785
 17      -0.000000000000
 18       0.000000000000
 19       0.031533866004
 Sym= A
 Ene=         0.0460704174
 Spin= Alpha
 Occup=  0.0000
  1       0.076670989682
  2       0.075418792046
  3      -0.906387033520
  4       0.000000000000
  5      -0.000000000000
  6       0.241695451418
  7      -0.000000000000
  8       0.000000000000
  9       0.386136398172
 10      -0.058088818045
 11      -0.000000000000
 12       0.000000000000
 13       0.000000000000
 14       0.000000000000
 15       0.081262244155
 16       0.165805961054
 17       0.000000000000
 18      -0.000000000000
 19      -0.013035639135
 Sym= A
 Ene=         0.0460704174
 Spin= Alpha
 Occup=  0.0000
  1       0.000000000000
  2       0.000000000000
  3      -0.000000000000
  4       0.006839224863
  5       0.089407252647
  6      -0.000000000000
  7       0.069960809044
  8       0.914577873187
  9      -0.000000000000
 10       0.000000000000
 11      -0.004484470214
 12      -0.058624210989
 13      -0.000000000000
 14      -0.000000000000
 15      -0.000000000000
 16      -0.000000000000
 17       0.000968619560
 18       0.012662489608
 19      -0.000000000000
 Sym= A
 Ene=         0.0938269035
 Spin= Alpha
 Occup=  0.0000
  1      -0.000000000000
  2      -0.000000000000
  3       0.000000000000
  4       0.089407252647
  5      -0.006839224863
  6      -0.000000000000
  7       0.914577873187
  8      -0.069960809044
  9       0.000000000000
 10       0.000000000000
 11      -0.058624210989
 12       0.004484470214
 13      -0.000000000000
 14       0.000000000000
 15      -0.000000000000
 16      -0.000000000000
 17       0.012662489608
 18      -0.000968619560
 19       0.000000000000
 Sym= A
 Ene=         0.1571273199
 Spin= Alpha
 Occup=  0.0000
  1       0.069423304346
  2       0.361999059040
  3      -0.932636916328
  4       0.000000000000
  5      -0.000000000000
  6       0.822053203708
  7       0.000000000000
  8       0.000000000000
  9      -1.485563631475
 10       0.053871656453
 11      -0.000000000000
 12      -0.000000000000
 13      -0.000000000000
 14      -0.000000000000
 15       0.096967759138
 16       0.192081902468
 17       0.000000000000
 18      -0.000000000000
 19      -0.010885576684
 Sym= A
 Ene=         0.1839303456
 Spin= Alpha
 Occup=  0.0000
  1      -0.000000000000
  2      -0.000000000000
  3       0.000000000000
  4       0.006683041555
  5      -2.124969644966
  6       0.000000000000
  7      -0.006069444264
  8       1.929867518771
  9      -0.000000000000
 10      -0.000000000000
 11      -0.000330731741
 12       0.105160936833
 13       0.000000000000
 14       0.000000000000
 15      -0.000000000000
 16      -0.000000000000
 17       0.000004074021
 18      -0.001295393782
 19       0.000000000000
 Sym= A
 Ene=         0.1839303456
 Spin= Alpha
 Occup=  0.0000
  1      -0.000000000000
  2      -0.000000000000
  3       0.000000000000
  4       2.124969644966
  5       0.006683041555
  6       0.000000000000
  7      -1.929867518771
  8      -0.006069444264
  9      -0.000000000000
 10      -0.000000000000
 11      -0.105160936833
 12      -0.000330731741
 13       0.000000000000
 14      -0.000000000000
 15      -0.000000000000
 16      -0.000000000000
 17       0.001295393782
 18       0.000004074021
 19       0.000000000000
 Sym= A
 Ene=         0.3173416217
 Spin= Alpha
 Occup=  0.0000
  1       0.107532624341
  2       0.719666858423
  3      -0.687685652602
  4       0.000000000000
  5       0.000000000000
  6       0.343324833378
  7       0.000000000000
  8      -0.000000000000
  9      -0.351114564258
 10      -0.954353179141
 11       0.000000000000
 12       0.000000000000
 13      -0.000000000000
 14      -0.000000000000
 15      -0.111069664003
 16       0.140376225861
 17      -0.000000000000
 18      -0.000000000000
 19       0.025141766650
 Sym= A
 Ene=         0.3459823117
 Spin= Alpha
 Occup=  0.0000
  1      -0.000000000000
  2       0.000000000000
  3      -0.000000000000
  4       0.012610472019
  5      -0.238070193288
  6       0.000000000000
  7      -0.008453086866
  8       0.159583877668
  9      -0.000000000000
 10      -0.000000000000
 11       0.052753318152
 12      -0.995917728527
 13       0.000000000000
 14      -0.000000000000
 15      -0.000000000000
 16       0.000000000000
 17      -0.000777262884
 18       0.014673766758
 19       0.000000000000
 Sym= A
 Ene=         0.3459823117
 Spin= Alpha
 Occup=  0.0000
  1      -0.000000000000
  2      -0.000000000000
  3      -0.000000000000
  4       0.238070193288
  5       0.012610472019
  6      -0.000000000000
  7      -0.159583877669
  8      -0.008453086866
  9       0.000000000000
 10       0.000000000000
 11       0.995917728527
 12       0.052753318152
 13       0.000000000000
 14       0.000000000000
 15       0.000000000000
 16       0.000000000000
 17      -0.014673766758
 18      -0.000777262884
 19      -0.000000000000
 Sym= A
 Ene=         0.3494644522
 Spin= Alpha
 Occup=  0.0000
  1       0.000000000000
  2      -0.000000000000
  3       0.000000000000
  4       0.000000000000
  5       0.000000000000
  6       0.000000000000
  7      -0.000000000000
  8      -0.000000000000
  9      -0.000000000000
 10       0.000000000000
 11       0.000000000000
 12       0.000000000000
 13       0.012029917038
 14      -0.999927637930
 15       0.000000000000
 16      -0.000000000000
 17      -0.000000000000
 18      -0.000000000000
 19      -0.000000000000
 Sym= A
 Ene=         0.3494644522
 Spin= Alpha
 Occup=  0.0000
  1      -0.000000000000
  2      -0.000000000000
  3       0.000000000000
  4      -0.000000000000
  5       0.000000000000
  6      -0.000000000000
  7       0.000000000000
  8      -0.000000000000
  9       0.000000000000
 10      -0.000000000000
 11      -0.000000000000
 12       0.000000000000
 13       0.999927637930
 14       0.012029917038
 15       0.000000000000
 16       0.000000000000
 17       0.000000000000
 18      -0.000000000000
 19       0.000000000000
 Sym= A
 Ene=         0.7968586794
 Spin= Alpha
 Occup=  0.0000
  1       0.627704498235
  2       2.205097627866
  3      -1.709151984681
  4       0.000000000000
  5       0.000000000000
  6       1.949439235681
  7       0.000000000000
  8      -0.000000000000
  9      -1.446940125537
 10       0.548333157025
 11      -0.000000000000
 12      -0.000000000000
 13       0.000000000000
 14       0.000000000000
 15      -1.367095339674
 16      -0.032092117080
 17       0.000000000000
 18      -0.000000000000
 19       0.099404242739
 Sym= A
 Ene=         1.2491779263
 Spin= Alpha
 Occup=  0.0000
  1       2.613301866537
  2      10.349139085766
  3      -6.489718296064
  4      -0.000000000000
  5       0.000000000000
  6       5.519939172384
  7       0.000000000000
  8      -0.000000000000
  9      -3.126745432887
 10       1.225333839699
 11       0.000000000000
 12      -0.000000000000
 13       0.000000000000
 14       0.000000000000
 15       0.279626000163
 16      -6.111083291997
 17      -0.000000000000
 18       0.000000000000
 19      -0.384013470238
 Sym= A
 Ene=         1.7762840059
 Spin= Alpha
 Occup=  0.0000
  1       0.000000000000
  2      -0.000000000000
  3       0.000000000000
  4       0.033464571537
  5      -0.650605365713
  6      -0.000000000000
  7      -0.025214195758
  8       0.490204723949
  9       0.000000000000
 10      -0.000000000000
 11       0.016323618356
 12      -0.317357527757
 13      -0.000000000000
 14       0.000000000000
 15       0.000000000000
 16       0.000000000000
 17      -0.056453512756
 18       1.097547544319
 19       0.000000000000
 Sym= A
 Ene=         1.7762840059
 Spin= Alpha
 Occup=  0.0000
  1       0.000000000000
  2       0.000000000000
  3      -0.000000000000
  4       0.650605365713
  5       0.033464571537
  6       0.000000000000
  7      -0.490204723949
  8      -0.025214195758
  9      -0.000000000000
 10       0.000000000000
 11       0.317357527757
 12       0.016323618356
 13       0.000000000000
 14       0.000000000000
 15       0.000000000000
 16      -0.000000000000
 17      -1.097547544319
 18      -0.056453512756
 19       0.000000000000
 Sym= A
 Ene=         1.8806867792
 Spin= Alpha
 Occup=  0.0000
  1       1.544010271322
  2       4.578101589632
  3      -2.895887482821
  4      -0.000000000000
  5       0.000000000000
  6       2.290692282023
  7       0.000000000000
  8      -0.000000000000
  9      -1.311670113902
 10       0.257111675749
 11      -0.000000000000
 12       0.000000000000
 13       0.000000000000
 14       0.000000000000
 15       0.322907040080
 16      -2.813459971985
 17       0.000000000000
 18      -0.000000000000
 19       1.021833871944
