
Host: hrgrimsl-XPS-13-9370

Timers On : Tue Apr 23 01:43:57 2019
Timers Off: Tue Apr 23 01:43:57 2019

Wall Time:        0.00 seconds


***********************************************************

Host: hrgrimsl-XPS-13-9370

Timers On : Tue Apr 23 01:44:30 2019
Timers Off: Tue Apr 23 01:44:31 2019

Wall Time:        1.00 seconds


***********************************************************

Host: hrgrimsl-XPS-13-9370

Timers On : Tue Apr 23 01:44:57 2019
Timers Off: Tue Apr 23 01:44:57 2019

Wall Time:        0.00 seconds


***********************************************************

Host: hrgrimsl-XPS-13-9370

Timers On : Tue Apr 23 01:45:40 2019
Timers Off: Tue Apr 23 01:45:40 2019

Wall Time:        0.00 seconds


***********************************************************

Host: hrgrimsl-XPS-13-9370

Timers On : Tue Apr 23 01:45:53 2019
Timers Off: Tue Apr 23 01:45:53 2019

Wall Time:        0.00 seconds


***********************************************************

Host: hrgrimsl-XPS-13-9370

Timers On : Tue Apr 23 01:46:22 2019
Timers Off: Tue Apr 23 01:46:22 2019

Wall Time:        0.00 seconds


***********************************************************

Host: hrgrimsl-XPS-13-9370

Timers On : Tue Apr 23 01:50:05 2019
Timers Off: Tue Apr 23 01:50:05 2019

Wall Time:        0.00 seconds


***********************************************************

Host: hrgrimsl-XPS-13-9370

Timers On : Tue Apr 23 01:51:40 2019
Timers Off: Tue Apr 23 01:51:40 2019

Wall Time:        0.00 seconds


***********************************************************

Host: hrgrimsl-XPS-13-9370

Timers On : Tue Apr 23 01:52:00 2019
Timers Off: Tue Apr 23 01:52:00 2019

Wall Time:        0.00 seconds


***********************************************************

Host: hrgrimsl-XPS-13-9370

Timers On : Tue Apr 23 01:52:19 2019
Timers Off: Tue Apr 23 01:52:19 2019

Wall Time:        0.00 seconds


***********************************************************

Host: hrgrimsl-XPS-13-9370

Timers On : Tue Apr 23 01:55:39 2019
Timers Off: Tue Apr 23 01:55:40 2019

Wall Time:        1.00 seconds


***********************************************************

Host: hrgrimsl-XPS-13-9370

Timers On : Tue Apr 23 01:56:06 2019
Timers Off: Tue Apr 23 01:56:06 2019

Wall Time:        0.00 seconds


***********************************************************

Host: hrgrimsl-XPS-13-9370

Timers On : Tue Apr 23 10:51:56 2019
Timers Off: Tue Apr 23 10:51:56 2019

Wall Time:        0.00 seconds


***********************************************************

Host: hrgrimsl-XPS-13-9370

Timers On : Tue Apr 23 14:48:36 2019
Timers Off: Tue Apr 23 14:48:36 2019

Wall Time:        0.00 seconds


***********************************************************

Host: hrgrimsl-XPS-13-9370

Timers On : Tue Apr 23 14:51:25 2019
Timers Off: Tue Apr 23 14:51:25 2019

Wall Time:        0.00 seconds


***********************************************************

Host: hrgrimsl-XPS-13-9370

Timers On : Tue Apr 23 14:51:41 2019
Timers Off: Tue Apr 23 14:51:42 2019

Wall Time:        1.00 seconds


***********************************************************

Host: hrgrimsl-XPS-13-9370

Timers On : Tue Apr 23 14:55:46 2019
Timers Off: Tue Apr 23 14:55:46 2019

Wall Time:        0.00 seconds


***********************************************************

Host: hrgrimsl-XPS-13-9370

Timers On : Tue Apr 23 14:56:19 2019
Timers Off: Tue Apr 23 14:56:19 2019

Wall Time:        0.00 seconds


***********************************************************

Host: hrgrimsl-XPS-13-9370

Timers On : Tue Apr 23 14:56:22 2019
Timers Off: Tue Apr 23 14:56:22 2019

Wall Time:        0.00 seconds


***********************************************************

Host: hrgrimsl-XPS-13-9370

Timers On : Tue Apr 23 14:56:41 2019
Timers Off: Tue Apr 23 14:56:41 2019

Wall Time:        0.00 seconds


***********************************************************

Host: hrgrimsl-XPS-13-9370

Timers On : Tue Apr 23 14:57:51 2019
Timers Off: Tue Apr 23 14:57:51 2019

Wall Time:        0.00 seconds


***********************************************************

Host: hrgrimsl-XPS-13-9370

Timers On : Tue Apr 23 14:58:03 2019
Timers Off: Tue Apr 23 14:58:03 2019

Wall Time:        0.00 seconds

JK: (A|mn)  :       0.00u       0.00s   0.010707w      2 calls
JK: (A|Q)^-1/2:       0.03u       0.00s   0.052537w      2 calls
JK: (Q|mn)  :       0.00u       0.00s   0.000079w      2 calls
HF: Form H  :       0.00u       0.00s 0.00085600w      1 call
HF: Form S/X:       0.00u       0.00s 0.00005500w      1 call
HF: Guess   :       0.03u       0.00s 0.03496800w      1 call
SAD Guess   :       0.03u       0.00s 0.03175200w      1 call
JK: D       :       0.00u       0.00s   0.000024w      7 calls
JK: USO2AO  :       0.00u       0.00s   0.000050w      7 calls
JK: JK      :       0.00u       0.00s   0.000825w      7 calls
JK: J       :       0.00u       0.00s   0.000460w      7 calls
JK: J1      :       0.00u       0.00s   0.000438w      9 calls
JK: J2      :       0.00u       0.00s   0.000010w      9 calls
JK: K       :       0.00u       0.00s   0.000302w      7 calls
JK: K1      :       0.00u       0.00s   0.000208w      9 calls
JK: K2      :       0.00u       0.00s   0.000080w      9 calls
JK: AO2USO  :       0.00u       0.00s   0.000019w      7 calls
DIISManager::add_entry:       0.00u       0.00s   0.000177w      6 calls
DIISManager::extrapolate:       0.00u       0.00s   0.000104w      5 calls
DIISManager::extrapolate: bMatrix setup:       0.00u       0.00s   0.000022w      5 calls
DIISManager::extrapolate: bMatrix pseudoinverse:       0.00u       0.00s   0.000042w      5 calls
DIISManager::extrapolate: form new data:       0.00u       0.00s   0.000028w      5 calls
HF: Form G  :       0.00u       0.00s   0.000451w      5 calls
HF: Form F  :       0.00u       0.00s   0.000009w      5 calls
HF: DIIS    :       0.00u       0.00s   0.000294w      5 calls
HF: Form C  :       0.00u       0.00s   0.000074w      5 calls
HF: Form D  :       0.00u       0.00s   0.000005w      5 calls

***********************************************************

Host: hrgrimsl-XPS-13-9370

Timers On : Tue Apr 23 14:59:17 2019
Timers Off: Tue Apr 23 14:59:17 2019

Wall Time:        0.00 seconds


***********************************************************

Host: hrgrimsl-XPS-13-9370

Timers On : Tue Apr 23 15:01:49 2019
Timers Off: Tue Apr 23 15:01:50 2019

Wall Time:        1.00 seconds


***********************************************************
