
Host: hrgrimsl-XPS-13-9370

Timers On : Tue Apr 23 01:43:57 2019
Timers Off: Tue Apr 23 01:43:57 2019

Wall Time:        0.00 seconds


***********************************************************

Host: hrgrimsl-XPS-13-9370

Timers On : Tue Apr 23 01:44:30 2019
Timers Off: Tue Apr 23 01:44:31 2019

Wall Time:        1.00 seconds


***********************************************************

Host: hrgrimsl-XPS-13-9370

Timers On : Tue Apr 23 01:44:57 2019
Timers Off: Tue Apr 23 01:44:57 2019

Wall Time:        0.00 seconds


***********************************************************

Host: hrgrimsl-XPS-13-9370

Timers On : Tue Apr 23 01:45:40 2019
Timers Off: Tue Apr 23 01:45:40 2019

Wall Time:        0.00 seconds


***********************************************************

Host: hrgrimsl-XPS-13-9370

Timers On : Tue Apr 23 01:45:53 2019
Timers Off: Tue Apr 23 01:45:53 2019

Wall Time:        0.00 seconds


***********************************************************

Host: hrgrimsl-XPS-13-9370

Timers On : Tue Apr 23 01:46:22 2019
Timers Off: Tue Apr 23 01:46:22 2019

Wall Time:        0.00 seconds


***********************************************************

Host: hrgrimsl-XPS-13-9370

Timers On : Tue Apr 23 01:50:05 2019
Timers Off: Tue Apr 23 01:50:05 2019

Wall Time:        0.00 seconds


***********************************************************

Host: hrgrimsl-XPS-13-9370

Timers On : Tue Apr 23 01:51:40 2019
Timers Off: Tue Apr 23 01:51:40 2019

Wall Time:        0.00 seconds


***********************************************************

Host: hrgrimsl-XPS-13-9370

Timers On : Tue Apr 23 01:52:00 2019
Timers Off: Tue Apr 23 01:52:00 2019

Wall Time:        0.00 seconds


***********************************************************

Host: hrgrimsl-XPS-13-9370

Timers On : Tue Apr 23 01:52:19 2019
Timers Off: Tue Apr 23 01:52:19 2019

Wall Time:        0.00 seconds


***********************************************************

Host: hrgrimsl-XPS-13-9370

Timers On : Tue Apr 23 01:55:39 2019
Timers Off: Tue Apr 23 01:55:40 2019

Wall Time:        1.00 seconds


***********************************************************

Host: hrgrimsl-XPS-13-9370

Timers On : Tue Apr 23 01:56:06 2019
Timers Off: Tue Apr 23 01:56:06 2019

Wall Time:        0.00 seconds


***********************************************************

Host: hrgrimsl-XPS-13-9370

Timers On : Tue Apr 23 10:51:56 2019
Timers Off: Tue Apr 23 10:51:56 2019

Wall Time:        0.00 seconds


***********************************************************
